113
Properties=species:S:1:pos:R:3:forces:R:3 C36H72N2O3=T energy=-627.0271108236285 free_energy=-627.0271108236285 stress="9.614484251629982e-09 8.538185802300344e-10 -8.978913192476596e-10 8.538185802300344e-10 3.7132998662591634e-09 -1.3939133064751078e-09 -8.978913192476596e-10 -1.3939133064751078e-09 1.1127212941967462e-10" pbc="F F F"
C        3.42975035      -1.78241956       1.30360294       0.00064642      -0.00178264       0.01397126
C        3.72421624      -1.68210764      -0.20409031      -0.00035150       0.00387538       0.00915209
C        3.84764858      -3.06950249      -0.82903878      -0.00420030      -0.00341550      -0.00299646
C        4.19900090      -2.99761603      -2.31401190       0.00186600      -0.00719991      -0.01322098
C        4.32440679      -4.37475762      -2.95852264       0.00140842      -0.00632953      -0.00944110
C        4.67953243      -4.29420599      -4.43942402      -0.00046933       0.00537268       0.00409226
C        4.80272852      -5.66512436      -5.09599053      -0.00023653       0.01369466       0.01140803
C        5.14739500      -5.52215046      -6.57424932      -0.00066019      -0.00214497       0.00576993
N        3.31805983      -0.48432791       1.98001915      -0.00271349       0.00414859      -0.00598954
C        2.19826495       0.31513547       1.92889882      -0.00934777       0.00957818       0.00623238
O        2.21045696       1.50207993       2.26385555      -0.00056873      -0.00636837       0.00227155
C        0.90807894      -0.37799648       1.47497566      -0.01535028       0.00043901       0.00390366
O       -0.11498177       0.59859730       1.42668463      -0.00506065      -0.00761805      -0.00594719
C       -1.27598921       0.05687184       0.82177014       0.00280320       0.00436323      -0.00270806
C       -2.40611229       1.07762059       0.97824411       0.00284276       0.00582235      -0.00936039
O       -2.19487720       2.22647535       1.37480723       0.00195047      -0.01322886      -0.00848537
N       -3.66149994       0.62682034       0.64813002       0.00405321      -0.00620070       0.00666809
C       -3.98374720      -0.66596914       0.04839561       0.00542935       0.01011119      -0.01004142
C       -4.42618260      -1.70752304       1.09147982       0.00548407       0.01211943      -0.00306643
C       -4.75344217      -3.04286838       0.42761814       0.00486810      -0.00138137       0.00015863
C       -5.15077118      -4.11251433       1.44395278      -0.00288271      -0.01309988       0.00057055
C       -5.44473864      -5.45856882       0.78790623      -0.00351216      -0.01227905       0.00405791
C       -5.83483873      -6.52904904       1.80112809      -0.00071011       0.00267319       0.00304816
C       -6.11969010      -7.88205869       1.15720916      -0.00014858       0.01407580       0.00277236
C       -6.51111532      -8.90713447       2.21587626       0.00005358       0.00387683      -0.00397279
C       -4.77860156       1.55316658       0.83196053       0.00570674      -0.00275075      -0.00017842
C       -4.89135454       2.50891186      -0.35840302      -0.00113519       0.00067847      -0.00404932
C       -6.03051797       3.50890859      -0.18665833       0.00199761      -0.00038992      -0.00418541
C       -6.13287816       4.46515327      -1.37444425      -0.00437578      -0.00088916       0.00822063
C       -7.24932952       5.49342705      -1.21414359       0.00578935      -0.00281183      -0.00027708
C       -7.35177511       6.43399642      -2.40913610       0.00460124      -0.00749064      -0.00065832
C       -8.46574671       7.46275809      -2.25304793       0.00030973      -0.00962253       0.00605742
C       -8.53445178       8.37998081      -3.46880532       0.00081481      -0.00170941       0.00338348
C        4.54922577       0.14121165       2.48122213       0.00212838       0.00143849       0.00263790
C        5.22921878       1.04627226       1.44948002       0.00436839       0.00466017      -0.00292743
C        6.46293975       1.73096998       2.03356870       0.00215816      -0.00025817      -0.00347066
C        7.21648933       2.54640048       0.98275446      -0.00101139      -0.00102692       0.00746377
C        8.46764914       3.22682665       1.53250103      -0.00848260      -0.00018988      -0.00241666
C        9.21496180       4.01350208       0.46101070      -0.01190567      -0.00675595      -0.00646063
C       10.47241217       4.69587087       0.98765410      -0.01095522      -0.01077656       0.00585755
C       11.16696415       5.47802825      -0.12183374      -0.00218592      -0.00162489       0.00645225
H        2.51228251      -2.37408576       1.45111802       0.00044338      -0.00417844       0.00568770
H        4.24182190      -2.34999549       1.78433108       0.00838692      -0.00650201      -0.00447883
H        2.92444832      -1.12047635      -0.71371022      -0.00116028      -0.00243091      -0.00281429
H        4.65116517      -1.11520480      -0.36888657       0.00311704       0.00031979      -0.01174802
H        4.62051542      -3.64896308      -0.29354326       0.00130794      -0.00494854      -0.00430352
H        2.89980819      -3.61901199      -0.69479598      -0.00775998      -0.00851883       0.00502134
H        3.43089868      -2.41079182      -2.85105927      -0.00391691       0.00261372       0.00137527
H        5.14821156      -2.44545662      -2.44311781       0.00145976       0.00532243       0.00430703
H        5.09198795      -4.96878373      -2.43013254      -0.00250993       0.00250471      -0.00016988
H        3.37787085      -4.93228105      -2.83838990       0.00167909      -0.00040513      -0.00152456
H        3.91657675      -3.70256314      -4.97752311       0.00073492      -0.00249947       0.00283463
H        5.62961182      -3.74431065      -4.56833413      -0.00301250      -0.00100471      -0.00262978
H        5.57681580      -6.25671917      -4.57748685      -0.00240752       0.00199355      -0.00291865
H        3.85673015      -6.22088802      -4.97521461       0.00654408       0.00574415      -0.00619710
H        5.24062914      -6.49926803      -7.06570096      -0.00539042      -0.01202618       0.00094965
H        4.37026470      -4.95334331      -7.10642186      -0.00188348      -0.00425448      -0.00869740
H        6.10153017      -4.99082444      -6.70839456       0.00410389       0.00206628       0.00252485
H        1.01982671      -0.85208757       0.48358541       0.00280395       0.01578222       0.01014091
H        0.63436658      -1.17151251       2.19502754       0.00211009       0.00356622       0.00347483
H       -1.07337587      -0.14329624      -0.24725314      -0.00954177       0.00391874       0.00428191
H       -1.53849753      -0.90260958       1.30434007      -0.00001679       0.00820031      -0.01398764
H       -4.80733858      -0.51417678      -0.66862067       0.00067972      -0.00210388      -0.00228935
H       -3.13050366      -1.05595400      -0.52527679       0.00280651       0.00227210      -0.00352444
H       -3.62425334      -1.85288604       1.83381343       0.00144619      -0.00005598       0.00373468
H       -5.29528458      -1.32093662       1.64808240      -0.00028994       0.00399452       0.00308137
H       -5.56655412      -2.90411649      -0.30696700       0.00005852       0.00531835       0.00285957
H       -3.87472048      -3.38795605      -0.14544496       0.00393296      -0.00249570      -0.01019071
H       -4.34192422      -4.23831354       2.18705276       0.00125271       0.00015560      -0.00064134
H       -6.03759614      -3.77838272       2.01289426       0.00070372       0.00648732      -0.00121171
H       -6.25422140      -5.34447021       0.04429708       0.00450477      -0.00055231       0.00311038
H       -4.55981232      -5.79743566       0.21917635      -0.00460324      -0.00093551       0.00159540
H       -5.03187863      -6.64884841       2.55114517      -0.00088233       0.00618169      -0.00195212
H       -6.72629710      -6.20258912       2.36703793       0.00213571      -0.00260975       0.00171725
H       -6.92537685      -7.77588660       0.41052118      -0.00157059       0.00001118       0.00433434
H       -5.22895708      -8.22546636       0.60311574      -0.00429369       0.00572348       0.00777507
H       -5.70550795      -9.03869445       2.95374334       0.00120106      -0.00869747       0.00101120
H       -7.41333896      -8.58886780       2.75932189      -0.00473878       0.00160069       0.00154459
H       -6.72083988      -9.88939786       1.77272604       0.00602592      -0.00336587      -0.01091865
H       -5.70295352       0.96873674       0.95810802       0.00580446      -0.00201676       0.00829162
H       -4.60452594       2.13153229       1.74928368       0.01067417       0.00732838      -0.00394194
H       -3.93157445       3.04086335      -0.45532156       0.00052581      -0.00425191      -0.00259129
H       -5.02713422       1.92474369      -1.28479555      -0.00098896       0.00116447      -0.00317143
H       -6.98692912       2.97106006      -0.05748906       0.00735812       0.00134377       0.00071231
H       -5.87222262       4.08594858       0.74148972      -0.00298917      -0.00840448      -0.00488303
H       -5.16897704       4.98973347      -1.50989474      -0.00933793      -0.00847261      -0.00153275
H       -6.29831219       3.88774264      -2.30274652       0.01036250       0.00134664       0.01198563
H       -8.21526583       4.97675989      -1.06874758       0.00893419       0.00125941      -0.00079344
H       -7.08403437       6.08440963      -0.29528969       0.00196926      -0.00810189       0.00092386
H       -6.39035256       6.95768748      -2.55968273       0.00058216       0.00356584       0.00523512
H       -7.52087535       5.85069333      -3.33222454      -0.00682913       0.00179006      -0.00694157
H       -9.42919676       6.94407474      -2.11113472      -0.00952939       0.00057154      -0.00068307
H       -8.29612418       8.05383407      -1.33671040      -0.00193339       0.00742219      -0.00359054
H       -7.58836028       8.92417487      -3.60755769       0.00407522       0.00479353      -0.00234492
H       -8.72937826       7.80706392      -4.38773325       0.00244262      -0.00743226      -0.00026907
H       -9.33463640       9.12468005      -3.36719961      -0.00301301       0.00702330       0.00381524
H        4.28183512       0.75458004       3.35291143      -0.00047112       0.00492944       0.00736676
H        5.23280628      -0.64996603       2.82513497       0.00990496       0.00151357       0.00381385
H        5.52097968       0.46612541       0.56177000       0.00338534       0.00395100      -0.00252856
H        4.49714447       1.79899193       1.11921440      -0.00012167       0.00066907      -0.00079050
H        6.15660819       2.38432747       2.86872836       0.00516274      -0.00682907      -0.00344297
H        7.14063859       0.97250086       2.46521804      -0.00038364       0.00348336      -0.00093807
H        7.50299917       1.88695317       0.14231623      -0.01395729       0.00292304       0.00645141
H        6.54127752       3.30971881       0.55342452       0.00406586      -0.00839525      -0.00091563
H        8.19322197       3.90254411       2.36240870      -0.00191198      -0.00123149      -0.00065133
H        9.14305241       2.47060665       1.97203004      -0.00530090       0.00503672      -0.00698296
H        9.48964782       3.34180424      -0.37214923       0.00585773      -0.00171840      -0.00899342
H        8.54580543       4.77496938       0.02128713      -0.00235498       0.00810747       0.00026624
H       10.20780787       5.36838665       1.82154204       0.00042703       0.00629589      -0.00221294
H       11.15723416       3.93921141       1.40700171       0.00138467      -0.00548846       0.00434352
H       11.46083047       4.81606427      -0.95023429      -0.00469962      -0.00718688       0.00187367
H       10.50401409       6.25406723      -0.53269371      -0.00134664       0.00535604      -0.00192732
H       12.07520746       5.97583643       0.24197413       0.00577537       0.00388062       0.00958734
