11
        Energy:       7.3685468
N         -1.00237       -0.13119        0.02869
C          0.45985       -0.10669        0.03587
C         -1.50180       -1.11001        0.99369
C         -1.50181       -0.43453       -1.31193
H          0.83510        0.16109        1.02992
H          0.89259       -1.07318       -0.24729
H         -1.16235       -0.86053        2.00522
H         -1.17129       -2.12878        0.76045
H         -2.59721       -1.10033        1.01937
H         -2.59721       -0.41252       -1.32832
H         -1.17130       -1.41810       -1.66532

