168
Lattice="21.404922 0.0 0.0 0.0 24.706836 0.0 0.0 0.0 30.0" Properties=species:S:1:pos:R:3:forces:R:3 energy=-1419.4103743287667 stress="0.007519167276996123 -1.6589190214425645e-06 4.0130271757233093e-07 -1.6589190214425645e-06 0.007451740772226826 3.08513297636628e-07 4.0130271757233093e-07 3.08513297636628e-07 5.564421406127659e-07" pbc="T T T"
C        2.29126460       0.19686403      13.71735720       0.00250597      -0.00300371       0.00109487
C        1.21408136       2.20187679      13.50649616      -0.00323435      -0.00570508      -0.00021810
C        3.59516657       6.32409055      12.97179773      -0.00333482       0.00304349       0.00359977
C        3.60384609      10.27897392      13.67860079      -0.00327320       0.00038638       0.00447326
C        6.00732148       2.19876121      13.59536385       0.00016109      -0.00169947       0.00567136
C        4.91035088       0.19076791      13.70864335      -0.00035749      -0.00109296       0.00363070
C        5.87867350       6.36826331      13.10725629       0.00463464      -0.00176342      -0.00013857
C        4.80237915       8.35688683      13.40380843      -0.00273268       0.00100335      -0.00682483
C        0.02017009      12.45723626      13.34004537       0.00005615       0.00362406      -0.00401226
C        0.03132488       4.12659975      13.19991311       0.00114505       0.00190682       0.00329465
C        2.41749584       8.32419085      13.65609153      -0.00371016      -0.00322763      -0.00521293
C        1.32512606       6.36360960      13.23779641      -0.00408504      -0.00442641       0.00842125
N        3.58881827      11.78209995      13.71876915       0.00969808       0.00173723      -0.00804208
N        1.19339698      11.79452051      13.38735364       0.00143282       0.00160366       0.00548373
N        2.37154690       1.52248723      13.58690644       0.00074060      -0.00481691      -0.00039324
N        3.60213507       7.66537057      13.34507022      -0.00268078       0.00130872      -0.00212785
N        4.78636452       9.70394292      13.44248550      -0.00143747       0.00131405       0.00109824
N        2.44439335       9.64544332      13.91198060      -0.00705992      -0.00262750       0.00025693
N        4.86455569       1.52651771      13.81411357       0.00499980      -0.00262239       0.01131076
N        6.00843047      11.85883760      13.99430142       0.00431259      -0.00074053      -0.00128353
N        0.02909081       5.61617202      13.20335097      -0.00120650      -0.00310382       0.01018356
N        4.77030517       5.68248431      12.78197030      -0.00302286       0.00673571       0.00280778
N        5.96009753       7.66625843      13.41339834      -0.00549304      -0.00045386      -0.00797353
N        0.02323527       1.50336297      13.37548683      -0.00123917      -0.00290653      -0.00187239
N        1.18890891       3.55009866      13.53921630      -0.00579200      -0.00761879       0.00255999
N        6.03939776       3.55372227      13.60219887      -0.00052756       0.00446013       0.00822838
N        1.26208090       7.61847985      13.69907264      -0.00221939      -0.00401877       0.00387620
N        2.40918208       5.70055281      12.80820546      -0.00580946      -0.00030498       0.00284578
C        2.27921254      12.52470950      13.65832027       0.00654238       0.00088841       0.01196269
C        1.18155272      14.53243296      13.65364108       0.00069624       0.00442080       0.00236893
C        3.59721948      18.67179598      13.01078136      -0.00465356      -0.00069648       0.00188445
C        3.59658072      22.63273278      13.71052930       0.00054490       0.00663990       0.00024944
C        5.96438609      14.53638772      13.44229719       0.00145980       0.00395711       0.00397122
C        4.88831519      12.54280502      13.71094574       0.01265627       0.00597953       0.00092614
C        5.87268340      18.71290853      13.21756070       0.00091515       0.00149879      -0.00535194
C        4.78770741      20.67720591      13.63875669      -0.00163986       0.00010600       0.00310932
C        0.00340126      24.84607816      13.63400774       0.00015548       0.00182997      -0.00224225
C        0.03080689      16.46724734      13.26938516      -0.00340362       0.00398641      -0.00121640
C        2.39724299      20.70005770      13.49546098       0.00286017      -0.00267225       0.00179877
C        1.32016731      18.70982994      13.21821775      -0.00258719      -0.00475599       0.00289286
N        3.59958756      24.14506099      13.74430800       0.00731007      -0.00187007      -0.00511462
N        1.15921886      24.19925340      13.86511677       0.00137705       0.00175569       0.00081872
N        2.30778055      13.84152440      13.91336097       0.00667635       0.00624861       0.00668581
N        3.59674017      20.01447520      13.37593869       0.00186312      -0.00345394      -0.00028543
N        4.77004128      22.00217839      13.86765697      -0.00429482      -0.00152617      -0.00164548
N        2.40857084      22.04406771      13.55889734       0.00470800      -0.00361408       0.00835893
N        4.80480607      13.84957328      13.45089873      -0.00148620       0.00234511      -0.00126453
N        6.02050349      24.16204437      13.61147462      -0.00248714       0.00199773       0.00126669
N        0.03157822      17.96086294      13.24057979       0.00223100       0.00110083      -0.00002181
N        4.77950999      18.05237927      12.81190464      -0.00075265       0.00621209       0.00489286
N        5.94457612      19.97042593      13.66691328       0.00135414      -0.00182606      -0.00205797
N        0.02355511      13.84338974      13.30867667       0.00138729       0.00286402       0.00499159
N        1.14806513      15.88470125      13.72360025      -0.01217333      -0.00091668      -0.00454712
N        5.98220673      15.88440562      13.44027280       0.00054587       0.00183946       0.00005955
N        1.24248607      20.00574386      13.53866434       0.00022325      -0.00375730       0.00204619
N        2.41969442      18.02421716      12.86275111      -0.00245303      -0.00812711      -0.00200287
C        9.44989811       0.17311974      13.24556048       0.00009499       0.00334311       0.00568395
C        8.34597928       2.16071578      12.99703465      -0.00134240       0.00270136      -0.00175630
C       10.73837444       6.28734169      13.40091678      -0.00002667       0.00123700      -0.00274384
C       10.73611100      10.29809914      13.41286115       0.00249865      -0.00513018      -0.00363279
C       13.12374488       2.14964206      13.70111008       0.00624481      -0.00174652      -0.00372272
C       12.03340849       0.17867330      13.31549911      -0.00123181       0.00790066       0.00189054
C       13.00007927       6.35466121      13.69359241      -0.00353975       0.00074868       0.00112477
C       11.89913876       8.35986230      13.74584196      -0.00094881      -0.00189207      -0.00185973
C        7.17666265      12.49202734      13.76893174       0.00759782      -0.00119614       0.00118445
C        7.17056165       4.11501884      13.16458071       0.00274093      -0.00018028       0.00044325
C        9.57781548       8.36141584      13.05783054       0.00106632      -0.00426698       0.00339375
C        8.47712130       6.35687514      13.10968175       0.00255163      -0.00054096       0.00342030
N       10.73205972      11.78885837      13.42500574       0.00083835      -0.00298517       0.00238828
N        8.36448359      11.84892918      13.86128984       0.00501767       0.00270730      -0.00717677
N        9.49589657       1.46065398      12.86351471      -0.00399315       0.00259393       0.00782013
N       10.73926382       7.67377324      13.39854468       0.00081574      -0.00162053       0.00541307
N       11.86029776       9.70842883      13.84449622       0.00326599       0.00188243       0.00413091
N        9.61501831       9.71108805      12.97176945      -0.00029947      -0.00484167      -0.00170612
N       11.97128796       1.44029750      13.76290336       0.00306296       0.00799286      -0.00494261
N       13.08785795      11.86480177      12.95739632      -0.00058504       0.00268667       0.00044332
N        7.17475954       5.61544315      13.09463445       0.00992199      -0.00072346      -0.00310221
N       11.91440856       5.62825658      13.41687155      -0.00272122       0.00747932       0.00536727
N       13.03146082       7.66599044      13.97883322      -0.00818063      -0.00195980       0.00353550
N        7.18113947       1.49480040      13.36527743      -0.00044331       0.00032763       0.00175364
N        8.29342433       3.49137863      12.78002190       0.00795282       0.00573083      -0.00089434
N       13.15454696       3.47440460      13.94398280      -0.00344869      -0.00131405      -0.00194538
N        8.44610677       7.66848925      12.82321096      -0.00034626       0.00375731       0.00397025
N        9.56278154       5.62768214      13.38683413       0.00392374      -0.00148347       0.00101895
C        9.43683366      12.52975716      13.43051322       0.00871439       0.01091756      -0.00177702
C        8.34054577      14.50523115      13.09688930       0.00238489       0.00127462       0.00503096
C       10.73277913      18.63150384      13.46384413       0.00025808      -0.00323312       0.00611240
C       10.74402084      22.64097454      13.31338551      -0.00093251       0.00716344       0.00294827
C       13.13141361      14.50316270      13.78054445      -0.00181129      -0.00255590      -0.00030132
C       12.02457639      12.53679326      13.42015118      -0.00225852      -0.00196912       0.00442134
C       12.99793907      18.70616571      13.73661825      -0.00394741      -0.00474277       0.00008826
C       11.89750755      20.71253902      13.72223718      -0.00224899       0.00098438       0.00250826
C        7.18802091      24.82408366      13.52651214      -0.00242178      -0.00117452      -0.00333067
C        7.15666677      16.46014247      13.16483812       0.00687113       0.00092038      -0.00644184
C        9.57603054      20.69584098      13.04490581      -0.00482694       0.00127079       0.00086702
C        8.47059620      18.69810339      13.17350736       0.00547251      -0.00157696      -0.00371880
N       10.74167043      24.13701018      13.27901697       0.00085989       0.00434752      -0.01333971
N        8.36802735      24.17316770      13.58717092      -0.00055641       0.00251795       0.00104161
N        9.49022587      13.79825559      13.00254483      -0.00257775       0.00232207      -0.00453833
N       10.73411987      20.01708431      13.41289616      -0.00133028      -0.00060062      -0.01373489
N       11.86311161      22.06593884      13.77156900      -0.00015337       0.00627669       0.00409226
N        9.62793031      22.03471747      12.88453740      -0.00174826       0.00560346       0.00076238
N       11.98082287      13.79619993      13.87770422      -0.00367247      -0.00189037      -0.00926365
N       13.11132356      24.21159427      12.89285324      -0.00290744       0.00750881       0.00681470
N        7.16894093      17.95734793      13.15809016       0.01122572      -0.00561332      -0.00152978
N       11.90782163      17.97033475      13.49929657       0.00127547       0.00301463       0.00276506
N       13.02873123      20.02672892      13.97202721      -0.00086846       0.00303277       0.00413760
N        7.16433563      13.84235436      13.43482103      -0.00270763      -0.00499124      -0.00469981
N        8.30738821      15.83304779      12.87217883      -0.01049931      -0.00819599       0.00017634
N       13.17137928      15.82706482      14.03044755       0.00955433      -0.00685593      -0.00345965
N        8.43146457      20.00185713      12.85559236      -0.00347059       0.00038179      -0.00041577
N        9.55499600      17.97557547      13.47291610       0.00360744       0.01050680      -0.00888715
C       16.57974791       0.19013522      13.13055491      -0.00382112      -0.00216311      -0.00481875
C       15.50665198       2.17971241      13.42334437      -0.00258239      -0.00226084       0.00011212
C       17.89159391       6.32549885      13.64365334       0.00102563       0.00089941       0.00005729
C       17.84785355      10.28810766      13.00726693      -0.00208698      -0.00009656       0.00595274
C       20.26717065       2.17200130      12.99807273       0.00463264      -0.00134805      -0.00555186
C       19.16850072       0.17816714      13.19669796      -0.00068954       0.00331095       0.00116698
C       20.13997383       6.36227795      13.24180477       0.00657443      -0.00253960       0.00592044
C       19.03342294       8.33490164      12.92588052       0.00496906      -0.00100235      -0.00381358
C       14.27796359      12.50309843      13.04341505      -0.00049423       0.00031978      -0.00464339
C       14.31409791       4.10512986      13.69375340      -0.00457859      -0.00120777      -0.00049037
C       16.66584276       8.36356410      13.32783125       0.00111692      -0.00180411      -0.00078448
C       15.60408158       6.37141910      13.65804484      -0.00514076      -0.00342851       0.00063168
N       17.85938182      11.78911555      12.98746756      -0.00866862       0.00297297      -0.00278613
N       15.43888260      11.87374012      12.77532031       0.00220571      -0.00058335      -0.00264490
N       16.66489287       1.48942217      13.43235987      -0.00773090      -0.00480249      -0.00217060
N       17.86677493       7.67179601      13.29545710       0.00365635       0.00266440       0.00457088
N       18.99327952       9.66172541      12.69439024      -0.00009168       0.00315139       0.00030724
N       16.68139731       9.71139415      13.30978620      -0.00237939       0.00099733       0.00204121
N       19.14252283       1.45601358      12.79353550      -0.00035973      -0.00062018      -0.00667875
N       20.24662214      11.80028715      13.32162592      -0.00324763       0.00278087      -0.00303854
N       14.30728587       5.60962359      13.72052480      -0.00892829      -0.00062703      -0.00645621
N       19.08210572       5.68337659      13.70506381       0.00418027      -0.00075112       0.00317545
N       20.18150566       7.62859157      12.80623674       0.00686533      -0.00117565      -0.00110251
N       14.30495652       1.48927617      13.37946292       0.00174612      -0.00349108      -0.00061042
N       15.49264573       3.52631367      13.45272157      -0.00064586       0.00082708       0.00478606
N       20.29498033       3.51464338      12.84097104       0.00867827      -0.00472998      -0.00134939
N       15.50768445       7.67419107      13.37764787       0.00455990      -0.00379710       0.00721191
N       16.73345425       5.69302382      13.91408289      -0.00059788       0.00395934      -0.00275466
C       16.56506582      12.55062045      13.04963897       0.00692364      -0.00177576       0.00019217
C       15.50179233      14.53780328      13.39751396      -0.00510310      -0.00220526      -0.00132436
C       17.89558147      18.67107726      13.70515998      -0.00142595      -0.00037126      -0.00639474
C       17.86096062      22.64411027      13.14571266       0.00258074       0.00481663       0.00063394
C       20.27232224      14.52856156      12.94549229       0.00406601      -0.00262341      -0.00127459
C       19.16789198      12.52769816      13.01697351      -0.00681687       0.00171130       0.00257318
C       20.14001898      18.70665772      13.28084076      -0.00026349      -0.00652469      -0.00304385
C       19.03765473      20.68875242      13.01254009       0.00195716      -0.00132445       0.00029868
C       14.29683804      24.85091253      13.02147210      -0.00126677       0.00125655      -0.00298985
C       14.31774140      16.45891638      13.73324153      -0.00438420       0.00610998       0.00002174
C       16.67571809      20.72086384      13.45288173       0.00000089       0.00166165      -0.00673073
C       15.60751432      18.72398889      13.73047624       0.00015667      -0.00240601      -0.00420655
N       17.86916220      24.13981450      13.12770969      -0.00308262      -0.00276634       0.00050975
N       15.46689152      24.21805728      12.80915496      -0.00192313       0.00363052      -0.00477272
N       16.66108047      13.84998906      13.34594425       0.00490617       0.00197734      -0.00454799
N       17.87362474      20.02576443      13.39096960      -0.00077248      -0.00135576      -0.00242169
N       19.00733314      22.02646112      12.81966875       0.00170862      -0.00239740       0.00131381
N       16.69582554      22.06903603      13.45829799       0.00155700       0.00072261      -0.00572692
N       19.14080274      13.83426892      12.71211528      -0.00056920      -0.00150348      -0.00294994
N       20.21956232      24.19419700      13.65064294      -0.00053750       0.00332856      -0.00053897
N       14.30845504      17.96404190      13.77258872      -0.00829152      -0.00129143      -0.01034240
N       19.08624586      18.02585451      13.74938048      -0.00273231      -0.00779621      -0.00140113
N       20.16943610      19.97395131      12.84543478       0.00156850      -0.00621660       0.00151671
N       14.30125401      13.84451518      13.41436577      -0.00569266      -0.00042995      -0.01304737
N       15.48524306      15.88537829      13.42993671      -0.00681294      -0.00494158       0.00511955
N       20.31441157      15.87651002      12.83303383       0.00491171      -0.00644001       0.00649608
N       15.51694078      20.03549927      13.49704687       0.00226920      -0.00270139       0.00641575
N       16.73675640      18.03393918      13.96107309      -0.00291626       0.00110448       0.00128374
